6
image # 1 Energy = -78.52994
C 0.00518   0.00000   0.00112   
C -1.31512  0.00001   0.00089   
H -1.88398  -0.91658  0.00082   
H -1.88398  0.91659   0.00079   
H 0.57394   0.91665   0.00123   
H 0.57395   -0.91668  0.00116   
6
image # 2 Energy = -78.51896
C 0.05242   0.00098   -0.01644  
C -1.36286  0.00481   -0.00058  
H -1.88797  -0.91954  0.04787   
H -1.90210  0.91390   -0.04016  
H 0.58964   0.91463   0.05317   
H 0.58370   -0.91613  -0.03651  
6
image # 3 Energy = -78.50167
C 0.08761   0.00365   -0.03402  
C -1.39645  -0.00100  -0.00853  
H -1.89866  -0.93670  0.10468   
H -1.93177  0.93642   -0.08259  
H 0.61092   0.93060   0.11349   
H 0.60375   -0.93519  -0.08177  
6
image # 4 Energy = -78.50279
C 0.07324   -0.00259  -0.04194  
C -1.38594  0.02121   -0.02384  
H -1.91104  -0.94277  0.16257   
H -1.94932  0.92544   -0.12193  
H 0.62689   0.92964   0.17164   
H 0.62309   -0.93365  -0.13100  
6
image # 5 Energy = -78.50601
C 0.04929   -0.00500  -0.02112  
C -1.36246  0.00924   -0.03649  
H -1.91886  -0.91930  0.21501   
H -1.97252  0.91747   -0.16306  
H 0.63693   0.91369   0.21886   
H 0.64538   -0.92113  -0.19205  
6
image # 6 Energy = -78.50123
C 0.03733   -0.00868  0.00063   
C -1.34898  0.00457   -0.04600  
H -1.92621  -0.89375  0.26519   
H -1.98413  0.89878   -0.20456  
H 0.64182   0.89055   0.26492   
H 0.65855   -0.89808  -0.25392  
6
image # 7 Energy = -78.49127
C 0.02934   -0.01968  0.03050   
C -1.33878  -0.00499  -0.04851  
H -1.93821  -0.86129  0.31459   
H -1.99075  0.87550   -0.25347  
H 0.64813   0.86505   0.31261   
H 0.66799   -0.86404  -0.32427  
6
image # 8 Energy = -78.47743
C 0.02632   -0.02756  0.06149   
C -1.32981  -0.01865  -0.03602  
H -1.96294  -0.82801  0.35983   
H -1.98413  0.84646   -0.30916  
H 0.65595   0.83794   0.35717   
H 0.67154   -0.82039  -0.39716  
6
image # 9 Energy = -78.46126
C 0.02643   -0.03535  0.07467   
C -1.32174  -0.03448  -0.00357  
H -1.99821  -0.79568  0.39905   
H -1.96086  0.81305   -0.36969  
H 0.66693   0.81277   0.40132   
H 0.66351   -0.76557  -0.46304  
6
image # 10 Energy = -78.45315
C 0.02416   -0.03277  0.05752   
C -1.32686  -0.01266  -0.01450  
H -1.98769  -0.78499  0.43079   
H -1.96323  0.80186   -0.39620  
H 0.66895   0.78685   0.44420   
H 0.66013   -0.75731  -0.48589  
6
image # 11 Energy = -78.44590
C 0.01908   -0.02514  0.01411   
C -1.33369  0.01015   -0.06013  
H -1.92139  -0.76564  0.46428   
H -2.00711  0.80861   -0.39499  
H 0.64648   0.74631   0.49871   
H 0.67120   -0.77324  -0.48733  
6
image # 12 Energy = -78.43588
C 0.01326   -0.00975  -0.05110  
C -1.33502  0.03090   -0.09460  
H -1.85024  -0.74662  0.49362   
H -2.04670  0.81379   -0.39102  
H 0.61495   0.69853   0.55087   
H 0.67713   -0.78531  -0.47566  
6
image # 13 Energy = -78.42207
C 0.01126   0.02217   -0.11468  
C -1.32657  0.04277   -0.09933  
H -1.81289  -0.72986  0.52454   
H -2.06257  0.80744   -0.39946  
H 0.58101   0.64499   0.59332   
H 0.68183   -0.78391  -0.47527  
6
image # 14 Energy = -78.40717
C 0.01996   0.10473   -0.22935  
C -1.30124  0.05197   -0.07014  
H -1.78783  -0.73379  0.54242   
H -2.04831  0.78873   -0.40253  
H 0.53565   0.57648   0.62035   
H 0.65216   -0.78377  -0.43955  
6
image # 15 Energy = -78.38852
C 0.03465   0.16244   -0.28915  
C -1.27836  0.05074   -0.04974  
H -1.77351  -0.72516  0.56873   
H -2.04751  0.76935   -0.42696  
H 0.51294   0.51719   0.64703   
H 0.62126   -0.77035  -0.43456  
6
image # 16 Energy = -78.37167
C 0.06585   0.23449   -0.33399  
C -1.28081  0.07050   -0.04276  
H -1.75936  -0.72259  0.59976   
H -2.03347  0.72333   -0.45694  
H 0.51029   0.45725   0.67450   
H 0.56671   -0.76029  -0.43270  
6
image # 17 Energy = -78.35718
C 0.08430   0.27894   -0.34976  
C -1.28651  0.06589   -0.02710  
H -1.73818  -0.69348  0.62461   
H -2.03783  0.69124   -0.49347  
H 0.50978   0.40640   0.70127   
H 0.53783   -0.74714  -0.44990  
6
image # 18 Energy = -78.34789
C 0.08066   0.30221   -0.30377  
C -1.27306  0.07886   -0.04672  
H -1.69579  -0.66089  0.64517   
H -2.06089  0.64923   -0.53641  
H 0.53273   0.35454   0.71460   
H 0.48635   -0.72393  -0.46686  
